17
4cni_gs_opt.out	Energy: -286039.1498950
N         -2.17762        0.99186        0.00000
C         -1.31039       -0.07681        0.00000
C          0.00000        0.45407        0.00000
C         -0.11670        1.88012        0.00000
C         -1.56218       -1.44863        0.00000
C          1.08641       -0.44364       -0.00000
C         -1.45275        2.16240        0.00000
C         -0.47267       -2.30507       -0.00000
C          0.84071       -1.81220       -0.00000
H         -3.18359        0.92969        0.00000
H          0.69118        2.59765       -0.00000
H         -2.57656       -1.83689        0.00000
C          2.43001        0.05776       -0.00000
N          3.51028        0.47437       -0.00000
H         -1.95739        3.11827        0.00000
H         -0.63434       -3.37800       -0.00000
H          1.67746       -2.50231       -0.00000
