17
2cni_gs_opt.out	Energy: -286037.3437250
N         -0.85969       -1.03139       -0.00003
C          0.45964       -0.65417       -0.00001
C          0.50195        0.75990        0.00002
C         -0.85061        1.22077       -0.00000
C          1.62150       -1.43433       -0.00001
C          1.74982        1.40767        0.00004
C         -1.64854        0.10600       -0.00001
C          2.83157       -0.76840        0.00002
C          2.89751        0.64180        0.00004
H         -1.21143       -1.97668       -0.00005
H         -1.20104        2.24307        0.00001
H          1.57533       -2.51921       -0.00003
H          1.80527        2.49219        0.00006
C         -3.06680        0.01229       -0.00002
N         -4.22132       -0.07902       -0.00003
H          3.75359       -1.34167        0.00002
H          3.86903        1.12592        0.00006
