17
7cni_gs_opt.out	Energy: -286039.7378324
N         -0.50182       -1.69211       -0.00004
C         -0.13601       -0.37343       -0.00001
C         -1.31663        0.40372        0.00005
C         -2.41607       -0.52133        0.00005
C          1.13865        0.21436       -0.00002
C         -1.20723        1.79974        0.00009
C         -1.88015       -1.77496       -0.00001
C          1.21422        1.60446        0.00002
C          0.05013        2.38494        0.00008
H          0.13636       -2.47416       -0.00008
H         -3.46929       -0.27894        0.00008
C          2.30326       -0.61687       -0.00008
N          3.21149       -1.33590       -0.00013
H         -2.09942        2.41914        0.00013
H         -2.36751       -2.73956       -0.00003
H          2.18923        2.07978        0.00001
H          0.14176        3.46611        0.00011
