17
6cni_gs_opt.out	Energy: -286039.0130458
N          1.89089       -1.38298        0.00008
C          0.74768       -0.61652        0.00003
C          1.15056        0.74132        0.00005
C          2.58347        0.75063        0.00010
C         -0.59024       -0.99877       -0.00003
C          0.16600        1.74198        0.00001
C          2.98897       -0.55339        0.00015
C         -1.54190        0.01606       -0.00007
C         -1.16503        1.37976       -0.00005
H          1.92169       -2.39049        0.00007
H          3.22899        1.61744        0.00011
H         -0.89316       -2.04080       -0.00004
H          0.44714        2.79064        0.00002
H          3.98711       -0.96845        0.00021
C         -2.93522       -0.32906       -0.00013
N         -4.05896       -0.60815       -0.00018
H         -1.94098        2.13739       -0.00009
